<?xml version="1.0"?>

<!-- generated on 24/04/2013 13:56:30 by SUMO gui Version svn
<?xml version="1.0" encoding="UTF-8"?>

<configuration xmlns:xsi="http://www.w3.org/2001/XMLSchema-instance" xsi:noNamespaceSchemaLocation="https://sumo.sf.net/xsd/sumo-gui.exeConfiguration.xsd">

    <input>
        <net-file value="C:\prj\COLOMBO\workspace\COLOMBO\scenarios\iTETRIS_pasubio\pasubio_buslanes.net.xml"/>
        <route-files value="C:\prj\COLOMBO\workspace\COLOMBO\scenarios\iTETRIS_pasubio\pasubio.rou.xml"/>
        <additional-files value="C:\prj\COLOMBO\workspace\COLOMBO\scenarios\iTETRIS_pasubio\pasubio_vtypes.add.xml,C:\prj\COLOMBO\workspace\COLOMBO\scenarios\iTETRIS_pasubio\pasubio_bus_stops.add.xml,C:\prj\COLOMBO\workspace\COLOMBO\scenarios\iTETRIS_pasubio\pasubio_busses.rou.xml,C:\prj\COLOMBO\workspace\COLOMBO\scenarios\iTETRIS_pasubio\pasubio_detectors.add.xml,C:\prj\COLOMBO\workspace\COLOMBO\scenarios\iTETRIS_pasubio\pasubio.platoon.tls.add.xml"/>
    </input>

    <output>
        <tripinfo-output value="C:\prj\COLOMBO\workspace\COLOMBO\scenarios\iTETRIS_pasubio\pasubio.platoon.tripinfo.xml"/>
    </output>

    <processing>
        <sloppy-insert value="true"/>
    </processing>

    <report>
        <log value="C:\prj\COLOMBO\workspace\COLOMBO\scenarios\iTETRIS_pasubio\sumo_log.txt"/>
    </report>

</configuration>
-->

<tripinfos>
    <tripinfo id="Gandhi_80_11" depart="17.00" departLane="1[0]_0" departPos="0.00" departSpeed="0.00" departDelay="0.00" arrival="60.00" arrivalLane="21_0" arrivalPos="103.70" arrivalSpeed="13.62" duration="43.00" routeLength="510.06" waitSteps="0" rerouteNo="0" devices="tripinfo_Gandhi_80_11" vType="passenger4" vaporized=""/>
    <tripinfo id="Pertini_20_2" depart="4.00" departLane="63[0]_2" departPos="0.00" departSpeed="0.00" departDelay="0.00" arrival="75.00" arrivalLane="4[1][1][1]_1" arrivalPos="172.70" arrivalSpeed="12.73" duration="71.00" routeLength="835.54" waitSteps="0" rerouteNo="0" devices="tripinfo_Pertini_20_2" vType="passenger4" vaporized=""/>
    <tripinfo id="Pertini_20_0" depart="0.00" departLane="63[0]_2" departPos="0.00" departSpeed="0.00" departDelay="0.00" arrival="76.00" arrivalLane="4[1][1][1]_0" arrivalPos="172.70" arrivalSpeed="12.89" duration="76.00" routeLength="835.54" waitSteps="0" rerouteNo="0" devices="tripinfo_Pertini_20_0" vType="passenger3" vaporized=""/>
    <tripinfo id="Pertini_20_1" depart="4.00" departLane="63[0]_1" departPos="0.00" departSpeed="0.00" departDelay="2.00" arrival="78.00" arrivalLane="4[1][1][1]_0" arrivalPos="172.70" arrivalSpeed="13.31" duration="74.00" routeLength="835.54" waitSteps="0" rerouteNo="0" devices="tripinfo_Pertini_20_1" vType="passenger3" vaporized=""/>
    <tripinfo id="Prati_Capraia_10_0" depart="0.00" departLane="3[0]_0" departPos="0.00" departSpeed="0.00" departDelay="0.00" arrival="79.00" arrivalLane="10_0" arrivalPos="226.64" arrivalSpeed="13.47" duration="79.00" routeLength="400.34" waitSteps="38" rerouteNo="0" devices="tripinfo_Prati_Capraia_10_0" vType="passenger2a" vaporized=""/>
    <tripinfo id="Prati_Capraia_10_1" depart="4.00" departLane="3[0]_0" departPos="0.00" departSpeed="0.00" departDelay="0.00" arrival="82.00" arrivalLane="10_0" arrivalPos="226.64" arrivalSpeed="13.41" duration="78.00" routeLength="400.34" waitSteps="35" rerouteNo="0" devices="tripinfo_Prati_Capraia_10_1" vType="passenger4" vaporized=""/>
    <tripinfo id="Pertini_20_7" depart="15.00" departLane="63[0]_2" departPos="0.00" departSpeed="0.00" departDelay="0.00" arrival="86.00" arrivalLane="4[1][1][1]_0" arrivalPos="172.70" arrivalSpeed="12.58" duration="71.00" routeLength="835.54" waitSteps="0" rerouteNo="0" devices="tripinfo_Pertini_20_7" vType="passenger2a" vaporized=""/>
    <tripinfo id="Prati_Capraia_10_7" depart="34.00" departLane="3[0]_0" departPos="0.00" departSpeed="0.00" departDelay="0.00" arrival="87.00" arrivalLane="10_0" arrivalPos="226.64" arrivalSpeed="13.73" duration="53.00" routeLength="400.34" waitSteps="10" rerouteNo="0" devices="tripinfo_Prati_Capraia_10_7" vType="passenger2a" vaporized=""/>
    <tripinfo id="Pertini_20_10" depart="21.00" departLane="63[0]_2" departPos="0.00" departSpeed="0.00" departDelay="0.00" arrival="92.00" arrivalLane="4[1][1][1]_0" arrivalPos="172.70" arrivalSpeed="12.71" duration="71.00" routeLength="835.54" waitSteps="0" rerouteNo="0" devices="tripinfo_Pertini_20_10" vType="passenger1" vaporized=""/>
    <tripinfo id="Pertini_20_9" depart="19.00" departLane="63[0]_1" departPos="0.00" departSpeed="0.00" departDelay="0.00" arrival="94.00" arrivalLane="4[1][1][1]_0" arrivalPos="172.70" arrivalSpeed="12.95" duration="75.00" routeLength="835.54" waitSteps="0" rerouteNo="0" devices="tripinfo_Pertini_20_9" vType="passenger4" vaporized=""/>
    <tripinfo id="Pertini_20_11" depart="23.00" departLane="63[0]_1" departPos="0.00" departSpeed="0.00" departDelay="0.00" arrival="96.00" arrivalLane="4[1][1][1]_1" arrivalPos="172.70" arrivalSpeed="12.96" duration="73.00" routeLength="835.54" waitSteps="0" rerouteNo="0" devices="tripinfo_Pertini_20_11" vType="passenger3" vaporized=""/>
    <tripinfo id="Pertini_20_12" depart="26.00" departLane="63[0]_1" departPos="0.00" departSpeed="0.00" departDelay="1.00" arrival="98.00" arrivalLane="4[1][1][1]_1" arrivalPos="172.70" arrivalSpeed="12.78" duration="72.00" routeLength="835.54" waitSteps="0" rerouteNo="0" devices="tripinfo_Pertini_20_12" vType="passenger5" vaporized=""/>
    <tripinfo id="Prati_Capraia_100_3" depart="14.00" departLane="3[0]_0" departPos="0.00" departSpeed="0.00" departDelay="0.00" arrival="99.00" arrivalLane="3[1]b_0" arrivalPos="241.22" arrivalSpeed="12.90" duration="85.00" routeLength="592.78" waitSteps="26" rerouteNo="0" devices="tripinfo_Prati_Capraia_100_3" vType="passenger3" vaporized=""/>
    <tripinfo id="Pertini_20_14" depart="30.00" departLane="63[0]_2" departPos="0.00" departSpeed="0.00" departDelay="0.00" arrival="101.00" arrivalLane="4[1][1][1]_0" arrivalPos="172.70" arrivalSpeed="13.65" duration="71.00" routeLength="835.54" waitSteps="0" rerouteNo="0" devices="tripinfo_Pertini_20_14" vType="passenger2b" vaporized=""/>
    <tripinfo id="Prati_Capraia_100_2" depart="9.00" departLane="3[0]_1" departPos="0.00" departSpeed="0.00" departDelay="0.00" arrival="102.00" arrivalLane="3[1]b_1" arrivalPos="241.22" arrivalSpeed="13.75" duration="93.00" routeLength="592.78" waitSteps="31" rerouteNo="0" devices="tripinfo_Prati_Capraia_100_2" vType="passenger5" vaporized=""/>
    <tripinfo id="Prati_Capraia_100_5" depart="24.00" departLane="3[0]_0" departPos="0.00" departSpeed="0.00" departDelay="0.00" arrival="102.00" arrivalLane="3[1]b_0" arrivalPos="241.22" arrivalSpeed="13.51" duration="78.00" routeLength="592.78" waitSteps="18" rerouteNo="0" devices="tripinfo_Prati_Capraia_100_5" vType="passenger4" vaporized=""/>
    <tripinfo id="Pertini_20_15" depart="32.00" departLane="63[0]_1" departPos="0.00" departSpeed="0.00" departDelay="0.00" arrival="103.00" arrivalLane="4[1][1][1]_1" arrivalPos="172.70" arrivalSpeed="12.94" duration="71.00" routeLength="835.54" waitSteps="0" rerouteNo="0" devices="tripinfo_Pertini_20_15" vType="passenger4" vaporized=""/>
    <tripinfo id="Prati_Capraia_100_4" depart="19.00" departLane="3[0]_1" departPos="0.00" departSpeed="0.00" departDelay="0.00" arrival="104.00" arrivalLane="3[1]b_1" arrivalPos="241.22" arrivalSpeed="13.70" duration="85.00" routeLength="592.78" waitSteps="22" rerouteNo="0" devices="tripinfo_Prati_Capraia_100_4" vType="passenger3" vaporized=""/>
    <tripinfo id="Pertini_20_16" depart="34.00" departLane="63[0]_2" departPos="0.00" departSpeed="0.00" departDelay="0.00" arrival="105.00" arrivalLane="4[1][1][1]_0" arrivalPos="172.70" arrivalSpeed="12.81" duration="71.00" routeLength="835.54" waitSteps="0" rerouteNo="0" devices="tripinfo_Pertini_20_16" vType="passenger3" vaporized=""/>
    <tripinfo id="Prati_Capraia_100_9" depart="43.00" departLane="3[0]_0" departPos="0.00" departSpeed="0.00" departDelay="0.00" arrival="106.00" arrivalLane="3[1]b_0" arrivalPos="241.22" arrivalSpeed="13.35" duration="63.00" routeLength="592.78" waitSteps="3" rerouteNo="0" devices="tripinfo_Prati_Capraia_100_9" vType="passenger1" vaporized=""/>
    <tripinfo id="Prati_Capraia_100_11" depart="53.00" departLane="3[0]_0" departPos="0.00" departSpeed="0.00" departDelay="0.00" arrival="107.00" arrivalLane="3[1]b_1" arrivalPos="241.22" arrivalSpeed="13.04" duration="54.00" routeLength="592.78" waitSteps="0" rerouteNo="0" devices="tripinfo_Prati_Capraia_100_11" vType="passenger3" vaporized=""/>
    <tripinfo id="Pertini_20_17" depart="36.00" departLane="63[0]_1" departPos="0.00" departSpeed="0.00" departDelay="0.00" arrival="107.00" arrivalLane="4[1][1][1]_0" arrivalPos="172.70" arrivalSpeed="13.07" duration="71.00" routeLength="835.54" waitSteps="0" rerouteNo="0" devices="tripinfo_Pertini_20_17" vType="passenger1" vaporized=""/>
    <tripinfo id="Prati_Capraia_100_8" depart="38.00" departLane="3[0]_1" departPos="0.00" departSpeed="0.00" departDelay="0.00" arrival="109.00" arrivalLane="3[1]b_1" arrivalPos="241.22" arrivalSpeed="13.56" duration="71.00" routeLength="592.78" waitSteps="7" rerouteNo="0" devices="tripinfo_Prati_Capraia_100_8" vType="passenger1" vaporized=""/>
    <tripinfo id="Pertini_20_18" depart="38.00" departLane="63[0]_2" departPos="0.00" departSpeed="0.00" departDelay="0.00" arrival="109.00" arrivalLane="4[1][1][1]_1" arrivalPos="172.70" arrivalSpeed="13.53" duration="71.00" routeLength="835.54" waitSteps="0" rerouteNo="0" devices="tripinfo_Pertini_20_18" vType="passenger1" vaporized=""/>
    <tripinfo id="Pertini_20_19" depart="40.00" departLane="63[0]_1" departPos="0.00" departSpeed="0.00" departDelay="0.00" arrival="110.00" arrivalLane="4[1][1][1]_0" arrivalPos="172.70" arrivalSpeed="13.06" duration="70.00" routeLength="835.54" waitSteps="0" rerouteNo="0" devices="tripinfo_Pertini_20_19" vType="passenger1" vaporized=""/>
    <tripinfo id="Prati_Capraia_100_10" depart="48.00" departLane="3[0]_1" departPos="0.00" departSpeed="0.00" departDelay="0.00" arrival="111.00" arrivalLane="3[1]b_1" arrivalPos="241.22" arrivalSpeed="13.35" duration="63.00" routeLength="592.78" waitSteps="0" rerouteNo="0" devices="tripinfo_Prati_Capraia_100_10" vType="passenger4" vaporized=""/>
    <tripinfo id="Prati_Capraia_100_12" depart="58.00" departLane="3[0]_1" departPos="0.00" departSpeed="0.00" departDelay="0.00" arrival="111.00" arrivalLane="3[1]b_0" arrivalPos="241.22" arrivalSpeed="12.74" duration="53.00" routeLength="592.78" waitSteps="0" rerouteNo="0" devices="tripinfo_Prati_Capraia_100_12" vType="passenger3" vaporized=""/>
    <tripinfo id="Gandhi_80_45" depart="70.00" departLane="1[0]_0" departPos="0.00" departSpeed="0.00" departDelay="0.00" arrival="113.00" arrivalLane="21_0" arrivalPos="103.70" arrivalSpeed="12.88" duration="43.00" routeLength="510.06" waitSteps="0" rerouteNo="0" devices="tripinfo_Gandhi_80_45" vType="passenger1" vaporized=""/>
    <tripinfo id="Prati_Capraia_100_13" depart="63.00" departLane="3[0]_0" departPos="0.00" departSpeed="0.00" departDelay="0.00" arrival="113.00" arrivalLane="3[1]b_0" arrivalPos="241.22" arrivalSpeed="13.05" duration="50.00" routeLength="592.78" waitSteps="0" rerouteNo="0" devices="tripinfo_Prati_Capraia_100_13" vType="passenger1" vaporized=""/>
    <tripinfo id="Saffi_30_4" depart="11.00" departLane="12_0" departPos="0.00" departSpeed="0.00" departDelay="0.00" arrival="115.00" arrivalLane="70_0" arrivalPos="61.95" arrivalSpeed="13.71" duration="104.00" routeLength="1095.59" waitSteps="3" rerouteNo="0" devices="tripinfo_Saffi_30_4" vType="passenger1" vaporized=""/>
    <tripinfo id="Pertini_20_21" depart="45.00" departLane="63[0]_1" departPos="0.00" departSpeed="0.00" departDelay="0.00" arrival="116.00" arrivalLane="4[1][1][1]_0" arrivalPos="172.70" arrivalSpeed="12.92" duration="71.00" routeLength="835.54" waitSteps="0" rerouteNo="0" devices="tripinfo_Pertini_20_21" vType="passenger5" vaporized=""/>
    <tripinfo id="Pertini_20_22" depart="47.00" departLane="63[0]_2" departPos="0.00" departSpeed="0.00" departDelay="0.00" arrival="118.00" arrivalLane="4[1][1][1]_0" arrivalPos="172.70" arrivalSpeed="13.17" duration="71.00" routeLength="835.54" waitSteps="0" rerouteNo="0" devices="tripinfo_Pertini_20_22" vType="passenger1" vaporized=""/>
    <tripinfo id="Prati_Capraia_100_14" depart="68.00" departLane="3[0]_0" departPos="0.00" departSpeed="0.00" departDelay="0.00" arrival="119.00" arrivalLane="3[1]b_0" arrivalPos="241.22" arrivalSpeed="13.77" duration="51.00" routeLength="592.78" waitSteps="0" rerouteNo="0" devices="tripinfo_Prati_Capraia_100_14" vType="passenger1" vaporized=""/>
    <tripinfo id="Pertini_20_25" depart="56.00" departLane="63[0]_1" departPos="0.00" departSpeed="0.00" departDelay="3.00" arrival="126.00" arrivalLane="4[1][1][1]_0" arrivalPos="172.70" arrivalSpeed="13.67" duration="70.00" routeLength="835.54" waitSteps="0" rerouteNo="0" devices="tripinfo_Pertini_20_25" vType="passenger5" vaporized=""/>
    <tripinfo id="Prati_Capraia_10_19" depart="92.00" departLane="3[0]_0" departPos="0.00" departSpeed="0.00" departDelay="0.00" arrival="126.00" arrivalLane="10_0" arrivalPos="226.64" arrivalSpeed="13.39" duration="34.00" routeLength="400.34" waitSteps="0" rerouteNo="0" devices="tripinfo_Prati_Capraia_10_19" vType="passenger1" vaporized=""/>
    <tripinfo id="Pertini_20_26" depart="56.00" departLane="63[0]_2" departPos="0.00" departSpeed="0.00" departDelay="1.00" arrival="127.00" arrivalLane="4[1][1][1]_1" arrivalPos="172.70" arrivalSpeed="12.73" duration="71.00" routeLength="835.54" waitSteps="0" rerouteNo="0" devices="tripinfo_Pertini_20_26" vType="passenger1" vaporized=""/>
    <tripinfo id="Sabotino_9_2" depart="18.00" departLane="41_0" departPos="0.00" departSpeed="0.00" departDelay="0.00" arrival="128.00" arrivalLane="2[1][1][1]b_1" arrivalPos="323.06" arrivalSpeed="13.65" duration="110.00" routeLength="1023.28" waitSteps="8" rerouteNo="0" devices="tripinfo_Sabotino_9_2" vType="passenger3" vaporized=""/>
    <tripinfo id="Prati_Capraia_100_16" depart="77.00" departLane="3[0]_1" departPos="0.00" departSpeed="0.00" departDelay="0.00" arrival="128.00" arrivalLane="3[1]b_0" arrivalPos="241.22" arrivalSpeed="13.18" duration="51.00" routeLength="592.78" waitSteps="0" rerouteNo="0" devices="tripinfo_Prati_Capraia_100_16" vType="passenger3" vaporized=""/>
    <tripinfo id="Sabotino_9_0" depart="0.00" departLane="41_0" departPos="0.00" departSpeed="0.00" departDelay="0.00" arrival="129.00" arrivalLane="2[1][1][1]b_0" arrivalPos="323.06" arrivalSpeed="12.62" duration="129.00" routeLength="1023.28" waitSteps="25" rerouteNo="0" devices="tripinfo_Sabotino_9_0" vType="passenger2b" vaporized=""/>
    <tripinfo id="Pertini_20_27" depart="59.00" departLane="63[0]_1" departPos="0.00" departSpeed="0.00" departDelay="1.00" arrival="129.00" arrivalLane="4[1][1][1]_0" arrivalPos="172.70" arrivalSpeed="13.43" duration="70.00" routeLength="835.54" waitSteps="0" rerouteNo="0" devices="tripinfo_Pertini_20_27" vType="passenger3" vaporized=""/>
    <tripinfo id="Sabotino_9_3" depart="27.00" departLane="41_0" departPos="0.00" departSpeed="0.00" departDelay="0.00" arrival="130.00" arrivalLane="2[1][1][1]b_2" arrivalPos="323.06" arrivalSpeed="12.77" duration="103.00" routeLength="1023.28" waitSteps="2" rerouteNo="0" devices="tripinfo_Sabotino_9_3" vType="passenger2a" vaporized=""/>
    <tripinfo id="Pertini_10_20" depart="43.00" departLane="63[0]_2" departPos="0.00" departSpeed="0.00" departDelay="0.00" arrival="130.00" arrivalLane="10_0" arrivalPos="226.64" arrivalSpeed="13.47" duration="87.00" routeLength="889.48" waitSteps="4" rerouteNo="0" devices="tripinfo_Pertini_10_20" vType="passenger2a" vaporized=""/>
    <tripinfo id="Sabotino_9_1" depart="9.00" departLane="41_0" departPos="0.00" departSpeed="0.00" departDelay="0.00" arrival="131.00" arrivalLane="2[1][1][1]b_0" arrivalPos="323.06" arrivalSpeed="13.34" duration="122.00" routeLength="1023.28" waitSteps="17" rerouteNo="0" devices="tripinfo_Sabotino_9_1" vType="passenger1" vaporized=""/>
    <tripinfo id="Pertini_20_28" depart="60.00" departLane="63[0]_2" departPos="0.00" departSpeed="0.00" departDelay="0.00" arrival="131.00" arrivalLane="4[1][1][1]_0" arrivalPos="172.70" arrivalSpeed="13.08" duration="71.00" routeLength="835.54" waitSteps="0" rerouteNo="0" devices="tripinfo_Pertini_20_28" vType="passenger1" vaporized=""/>
    <tripinfo id="Sabotino_9_4" depart="36.00" departLane="41_0" departPos="0.00" departSpeed="0.00" departDelay="0.00" arrival="132.00" arrivalLane="2[1][1][1]b_1" arrivalPos="323.06" arrivalSpeed="13.60" duration="96.00" routeLength="1023.28" waitSteps="0" rerouteNo="0" devices="tripinfo_Sabotino_9_4" vType="passenger1" vaporized=""/>
    <tripinfo id="Prati_Capraia_100_17" depart="82.00" departLane="3[0]_0" departPos="0.00" departSpeed="0.00" departDelay="0.00" arrival="133.00" arrivalLane="3[1]b_0" arrivalPos="241.22" arrivalSpeed="12.70" duration="51.00" routeLength="592.78" waitSteps="0" rerouteNo="0" devices="tripinfo_Prati_Capraia_100_17" vType="passenger2b" vaporized=""/>
    <tripinfo id="Sabotino_9_5" depart="45.00" departLane="41_0" departPos="0.00" departSpeed="0.00" departDelay="0.00" arrival="134.00" arrivalLane="2[1][1][1]b_1" arrivalPos="323.06" arrivalSpeed="13.52" duration="89.00" routeLength="1023.28" waitSteps="0" rerouteNo="0" devices="tripinfo_Sabotino_9_5" vType="passenger3" vaporized=""/>
    <tripinfo id="Montefiorino_60_7" depart="28.00" departLane="43_0" departPos="0.00" departSpeed="0.00" departDelay="0.00" arrival="136.00" arrivalLane="40[1]_0" arrivalPos="498.82" arrivalSpeed="13.76" duration="108.00" routeLength="990.55" waitSteps="21" rerouteNo="0" devices="tripinfo_Montefiorino_60_7" vType="passenger3" vaporized=""/>
    <tripinfo id="Prati_Capraia_100_18" depart="87.00" departLane="3[0]_0" departPos="0.00" departSpeed="0.00" departDelay="0.00" arrival="138.00" arrivalLane="3[1]b_0" arrivalPos="241.22" arrivalSpeed="13.13" duration="51.00" routeLength="592.78" waitSteps="0" rerouteNo="0" devices="tripinfo_Prati_Capraia_100_18" vType="passenger4" vaporized=""/>
    <tripinfo id="Borgo_20_3" depart="18.00" departLane="6_1" departPos="0.00" departSpeed="0.00" departDelay="0.00" arrival="147.00" arrivalLane="4[1][1][1]_1" arrivalPos="172.70" arrivalSpeed="13.00" duration="129.00" routeLength="530.45" waitSteps="76" rerouteNo="0" devices="tripinfo_Borgo_20_3" vType="passenger2b" vaporized=""/>
    <tripinfo id="Malvasia_30_15" depart="72.00" departLane="52_0" departPos="0.00" departSpeed="0.00" departDelay="0.00" arrival="148.00" arrivalLane="70_0" arrivalPos="61.95" arrivalSpeed="13.86" duration="76.00" routeLength="907.92" waitSteps="0" rerouteNo="0" devices="tripinfo_Malvasia_30_15" vType="passenger2b" vaporized=""/>
    <tripinfo id="Borgo_20_4" depart="24.00" departLane="6_1" departPos="0.00" departSpeed="0.00" departDelay="0.00" arrival="149.00" arrivalLane="4[1][1][1]_1" arrivalPos="172.70" arrivalSpeed="13.77" duration="125.00" routeLength="530.45" waitSteps="68" rerouteNo="0" devices="tripinfo_Borgo_20_4" vType="passenger1" vaporized=""/>
    <tripinfo id="Nigrisoli_50_6" depart="37.00" departLane="65_0" departPos="0.00" departSpeed="0.00" departDelay="0.00" arrival="150.00" arrivalLane="35[1][1][1][1]_0" arrivalPos="260.17" arrivalSpeed="13.58" duration="113.00" routeLength="1098.20" waitSteps="12" rerouteNo="0" devices="tripinfo_Nigrisoli_50_6" vType="ignoring3" vaporized=""/>
    <tripinfo id="Borgo_20_7" depart="42.00" departLane="6_1" departPos="0.00" departSpeed="0.00" departDelay="0.00" arrival="151.00" arrivalLane="4[1][1][1]_1" arrivalPos="172.70" arrivalSpeed="13.68" duration="109.00" routeLength="530.45" waitSteps="50" rerouteNo="0" devices="tripinfo_Borgo_20_7" vType="passenger2b" vaporized=""/>
    <tripinfo id="Borgo_20_6" depart="36.00" departLane="6_1" departPos="0.00" departSpeed="0.00" departDelay="0.00" arrival="152.00" arrivalLane="4[1][1][1]_1" arrivalPos="172.70" arrivalSpeed="13.80" duration="116.00" routeLength="530.45" waitSteps="60" rerouteNo="0" devices="tripinfo_Borgo_20_6" vType="passenger4" vaporized=""/>
    <tripinfo id="Prati_Capraia_30_6" depart="29.00" departLane="3[0]_1" departPos="0.00" departSpeed="0.00" departDelay="0.00" arrival="152.00" arrivalLane="70_0" arrivalPos="61.95" arrivalSpeed="12.72" duration="123.00" routeLength="724.18" waitSteps="26" rerouteNo="0" devices="tripinfo_Prati_Capraia_30_6" vType="ignoring1" vaporized=""/>
    <tripinfo id="Gandhi_70_32" depart="50.00" departLane="1[0]_0" departPos="0.00" departSpeed="0.00" departDelay="0.00" arrival="153.00" arrivalLane="44_0" arrivalPos="124.60" arrivalSpeed="13.39" duration="103.00" routeLength="1020.02" waitSteps="6" rerouteNo="0" devices="tripinfo_Gandhi_70_32" vType="passenger2a" vaporized=""/>
    <tripinfo id="Borgo_20_9" depart="54.00" departLane="6_1" departPos="0.00" departSpeed="0.00" departDelay="0.00" arrival="156.00" arrivalLane="4[1][1][1]_1" arrivalPos="172.70" arrivalSpeed="12.91" duration="102.00" routeLength="530.45" waitSteps="42" rerouteNo="0" devices="tripinfo_Borgo_20_9" vType="passenger3" vaporized=""/>
    <tripinfo id="Borgo_100_0" depart="0.00" departLane="6_0" departPos="0.00" departSpeed="0.00" departDelay="0.00" arrival="160.00" arrivalLane="3[1]b_0" arrivalPos="241.22" arrivalSpeed="12.86" duration="160.00" routeLength="776.83" waitSteps="90" rerouteNo="0" devices="tripinfo_Borgo_100_0" vType="passenger2b" vaporized=""/>
    <tripinfo id="Borgo_20_13" depart="79.00" departLane="6_1" departPos="0.00" departSpeed="0.00" departDelay="0.00" arrival="161.00" arrivalLane="4[1][1][1]_1" arrivalPos="172.70" arrivalSpeed="13.57" duration="82.00" routeLength="530.45" waitSteps="22" rerouteNo="0" devices="tripinfo_Borgo_20_13" vType="passenger2a" vaporized=""/>
    <tripinfo id="Borgo_100_2" depart="12.00" departLane="6_0" departPos="0.00" departSpeed="0.00" departDelay="0.00" arrival="163.00" arrivalLane="3[1]b_0" arrivalPos="241.22" arrivalSpeed="13.31" duration="151.00" routeLength="776.83" waitSteps="80" rerouteNo="0" devices="tripinfo_Borgo_100_2" vType="passenger2b" vaporized=""/>
    <tripinfo id="Saffi_20_5" depart="14.00" departLane="12_0" departPos="0.00" departSpeed="0.00" departDelay="0.00" arrival="168.00" arrivalLane="4[1][1][1]_0" arrivalPos="172.70" arrivalSpeed="13.51" duration="154.00" routeLength="1694.87" waitSteps="4" rerouteNo="0" devices="tripinfo_Saffi_20_5" vType="passenger5" vaporized=""/>
    <tripinfo id="Nigrisoli_92_3" depart="18.00" departLane="65_0" departPos="0.00" departSpeed="0.00" departDelay="0.00" arrival="169.00" arrivalLane="2[1][1][1]b_0" arrivalPos="323.06" arrivalSpeed="13.51" duration="151.00" routeLength="1362.60" waitSteps="20" rerouteNo="0" devices="tripinfo_Nigrisoli_92_3" vType="passenger2b" vaporized=""/>
    <tripinfo id="Borgo_100_8" depart="48.00" departLane="6_0" departPos="0.00" departSpeed="0.00" departDelay="0.00" arrival="172.00" arrivalLane="3[1]b_0" arrivalPos="241.22" arrivalSpeed="13.23" duration="124.00" routeLength="776.83" waitSteps="50" rerouteNo="0" devices="tripinfo_Borgo_100_8" vType="passenger4" vaporized=""/>
    <tripinfo id="Saffi_10_1" depart="4.00" departLane="12_0" departPos="0.00" departSpeed="0.00" departDelay="2.00" arrival="172.00" arrivalLane="10_0" arrivalPos="226.64" arrivalSpeed="13.31" duration="168.00" routeLength="1748.81" waitSteps="10" rerouteNo="0" devices="tripinfo_Saffi_10_1" vType="passenger2a" vaporized=""/>
    <tripinfo id="Certosa_9_0" depart="0.00" departLane="22[0]_1" departPos="0.00" departSpeed="0.00" departDelay="0.00" arrival="173.00" arrivalLane="2[1][1][1]b_1" arrivalPos="323.06" arrivalSpeed="13.09" duration="173.00" routeLength="553.62" waitSteps="115" rerouteNo="0" devices="tripinfo_Certosa_9_0" vType="passenger1" vaporized=""/>
    <tripinfo id="Certosa_9_3" depart="109.00" departLane="22[0]_1" departPos="0.00" departSpeed="0.00" departDelay="0.00" arrival="174.00" arrivalLane="2[1][1][1]b_2" arrivalPos="323.06" arrivalSpeed="12.67" duration="65.00" routeLength="553.62" waitSteps="7" rerouteNo="0" devices="tripinfo_Certosa_9_3" vType="passenger1" vaporized=""/>
    <tripinfo id="Borgo_100_11" depart="66.00" departLane="6_0" departPos="0.00" departSpeed="0.00" departDelay="0.00" arrival="176.00" arrivalLane="3[1]b_0" arrivalPos="241.22" arrivalSpeed="13.83" duration="110.00" routeLength="776.83" waitSteps="35" rerouteNo="0" devices="tripinfo_Borgo_100_11" vType="passenger2a" vaporized=""/>
    <tripinfo id="Nigrisoli_90_7" depart="43.00" departLane="65_0" departPos="0.00" departSpeed="0.00" departDelay="0.00" arrival="178.00" arrivalLane="2[1][1][1]b_0" arrivalPos="323.06" arrivalSpeed="13.76" duration="135.00" routeLength="1341.88" waitSteps="9" rerouteNo="0" devices="tripinfo_Nigrisoli_90_7" vType="passenger2a" vaporized=""/>
    <tripinfo id="Borgo_100_12" depart="72.00" departLane="6_0" departPos="0.00" departSpeed="0.00" departDelay="0.00" arrival="178.00" arrivalLane="3[1]b_0" arrivalPos="241.22" arrivalSpeed="13.74" duration="106.00" routeLength="776.83" waitSteps="29" rerouteNo="0" devices="tripinfo_Borgo_100_12" vType="passenger1" vaporized=""/>
    <tripinfo id="Borgo_100_15" depart="91.00" departLane="6_0" departPos="0.00" departSpeed="0.00" departDelay="0.00" arrival="181.00" arrivalLane="3[1]b_0" arrivalPos="241.22" arrivalSpeed="13.28" duration="90.00" routeLength="776.83" waitSteps="14" rerouteNo="0" devices="tripinfo_Borgo_100_15" vType="passenger3" vaporized=""/>
    <tripinfo id="Gandhi_60_4" depart="6.00" departLane="1[0]_1" departPos="0.00" departSpeed="0.00" departDelay="0.00" arrival="182.00" arrivalLane="40[1]_1" arrivalPos="498.82" arrivalSpeed="13.17" duration="176.00" routeLength="1604.01" waitSteps="36" rerouteNo="0" devices="tripinfo_Gandhi_60_4" vType="passenger2b" vaporized=""/>
    <tripinfo id="Gandhi_60_2" depart="3.00" departLane="1[0]_0" departPos="0.00" departSpeed="0.00" departDelay="0.00" arrival="182.00" arrivalLane="40[1]_0" arrivalPos="498.82" arrivalSpeed="13.80" duration="179.00" routeLength="1604.01" waitSteps="40" rerouteNo="0" devices="tripinfo_Gandhi_60_2" vType="passenger3" vaporized=""/>
    <tripinfo id="Gandhi_60_7" depart="10.00" departLane="1[0]_1" departPos="0.00" departSpeed="0.00" departDelay="0.00" arrival="184.00" arrivalLane="40[1]_1" arrivalPos="498.82" arrivalSpeed="13.15" duration="174.00" routeLength="1604.01" waitSteps="34" rerouteNo="0" devices="tripinfo_Gandhi_60_7" vType="passenger1" vaporized=""/>
    <tripinfo id="Gandhi_60_6" depart="9.00" departLane="1[0]_0" departPos="0.00" departSpeed="0.00" departDelay="0.00" arrival="184.00" arrivalLane="40[1]_0" arrivalPos="498.82" arrivalSpeed="13.00" duration="175.00" routeLength="1604.01" waitSteps="37" rerouteNo="0" devices="tripinfo_Gandhi_60_6" vType="passenger5" vaporized=""/>
    <tripinfo id="Gandhi_60_9" depart="14.00" departLane="1[0]_1" departPos="0.00" departSpeed="0.00" departDelay="0.00" arrival="186.00" arrivalLane="40[1]_1" arrivalPos="498.82" arrivalSpeed="12.93" duration="172.00" routeLength="1604.01" waitSteps="32" rerouteNo="0" devices="tripinfo_Gandhi_60_9" vType="passenger1" vaporized=""/>
    <tripinfo id="Gandhi_60_8" depart="12.00" departLane="1[0]_0" departPos="0.00" departSpeed="0.00" departDelay="0.00" arrival="186.00" arrivalLane="40[1]_0" arrivalPos="498.82" arrivalSpeed="12.76" duration="174.00" routeLength="1604.01" waitSteps="35" rerouteNo="0" devices="tripinfo_Gandhi_60_8" vType="passenger1" vaporized=""/>
    <tripinfo id="Malvasia_10_6" depart="29.00" departLane="52_0" departPos="0.00" departSpeed="0.00" departDelay="0.00" arrival="187.00" arrivalLane="10_0" arrivalPos="226.64" arrivalSpeed="12.59" duration="158.00" routeLength="1561.14" waitSteps="11" rerouteNo="0" devices="tripinfo_Malvasia_10_6" vType="passenger2b" vaporized=""/>
    <tripinfo id="Saffi_103_0" depart="0.00" departLane="12_1" departPos="0.00" departSpeed="0.00" departDelay="0.00" arrival="188.00" arrivalLane="3[1]b_1" arrivalPos="241.22" arrivalSpeed="13.73" duration="188.00" routeLength="1941.25" waitSteps="16" rerouteNo="0" devices="tripinfo_Saffi_103_0" vType="passenger1" vaporized=""/>
    <tripinfo id="Gandhi_60_16" depart="27.00" departLane="1[0]_1" departPos="0.00" departSpeed="0.00" departDelay="2.00" arrival="188.00" arrivalLane="40[1]_1" arrivalPos="498.82" arrivalSpeed="13.12" duration="161.00" routeLength="1604.01" waitSteps="15" rerouteNo="0" devices="tripinfo_Gandhi_60_16" vType="passenger2a" vaporized=""/>
    <tripinfo id="Gandhi_60_15" depart="24.00" departLane="1[0]_1" departPos="0.00" departSpeed="0.00" departDelay="1.00" arrival="188.00" arrivalLane="40[1]_0" arrivalPos="498.82" arrivalSpeed="13.85" duration="164.00" routeLength="1604.01" waitSteps="14" rerouteNo="0" devices="tripinfo_Gandhi_60_15" vType="passenger1" vaporized=""/>
    <tripinfo id="Saffi_103_2" depart="5.00" departLane="12_1" departPos="0.00" departSpeed="0.00" departDelay="0.00" arrival="188.00" arrivalLane="3[1]b_0" arrivalPos="241.22" arrivalSpeed="12.62" duration="183.00" routeLength="1941.25" waitSteps="9" rerouteNo="0" devices="tripinfo_Saffi_103_2" vType="passenger2a" vaporized=""/>
    <tripinfo id="Gandhi_60_17" depart="27.00" departLane="1[0]_0" departPos="0.00" departSpeed="0.00" departDelay="1.00" arrival="189.00" arrivalLane="40[1]_1" arrivalPos="498.82" arrivalSpeed="12.78" duration="162.00" routeLength="1604.01" waitSteps="13" rerouteNo="0" devices="tripinfo_Gandhi_60_17" vType="passenger5" vaporized=""/>
    <tripinfo id="Gandhi_60_18" depart="29.00" departLane="1[0]_1" departPos="0.00" departSpeed="0.00" departDelay="1.00" arrival="190.00" arrivalLane="40[1]_0" arrivalPos="498.82" arrivalSpeed="12.78" duration="161.00" routeLength="1604.01" waitSteps="12" rerouteNo="0" devices="tripinfo_Gandhi_60_18" vType="passenger2b" vaporized=""/>